LAMMPS (31082007-ziegen@rhrk.uni-kl.de)
boundary p p p
units metal
atom_style atomic
lattice fcc 3.615
Lattice spacing in x,y,z = 3.615 3.615 3.615
region box block 0 15 0 15 0 15
create_box 1 box
Created orthogonal box = (0 0 0) to (54.225 54.225 54.225)
  1 by 1 by 1 processor grid
create_atoms 1 box
Created 13500 atoms
mass * 63.55

pair_style eam/alloy
pair_coeff * * cu.eam Cu

timestep 0.002
thermo 1
fix nve all nve 

thermo 1
minimize 1e-4 100 100
Memory usage per processor = 4.1668 Mbytes
Step Temp E_pair E_mol TotEng Press 
       0            0   -1364.4045            0   -1364.4045            0 
       1            0   -1364.4045            0   -1364.4045            0 
Loop time of 0.00467891 on 1 procs for 1 steps with 13500 atoms

Minimization stats:
  E initial, next-to-last, final = -1364.4 -1364.4 -1364.4
  Gradient 2-norm init/final= 0 0
  Gradient inf-norm init/final= 0 0
  Iterations = 1
  Force evaluations = 0

Pair  time (%) = 0.0021231 (45.376)
Neigh time (%) = 0 (0)
Comm  time (%) = 0.000189995 (4.06068)
Outpt time (%) = 0 (0)
Other time (%) = 0.00236581 (50.5633)

Nlocal:    13500 ave 13500 max 13500 min
Histogram: 1 0 0 0 0 0 0 0 0 0
Nghost:    4468 ave 4468 max 4468 min
Histogram: 1 0 0 0 0 0 0 0 0 0
Neighs:    0 ave 0 max 0 min
Histogram: 1 0 0 0 0 0 0 0 0 0

Total # of neighbors = 0
Ave neighs/atom = 0
Neighbor list builds = 0
Dangerous builds = 0
run 100
Memory usage per processor = 3.25127 Mbytes
Step Temp E_pair E_mol TotEng Press 
       1            0   -1364.4045            0   -1364.4045            0 
       2            0   -1364.4045            0   -1364.4045            0 
       3            0   -1364.4045            0   -1364.4045            0 
       4            0   -1364.4045            0   -1364.4045            0 
       5            0   -1364.4045            0   -1364.4045            0 
       6            0   -1364.4045            0   -1364.4045            0 
       7            0   -1364.4045            0   -1364.4045            0 
       8            0   -1364.4045            0   -1364.4045            0 
       9            0   -1364.4045            0   -1364.4045            0 
      10            0   -1364.4045            0   -1364.4045            0 
      11            0   -1364.4045            0   -1364.4045            0 
      12            0   -1364.4045            0   -1364.4045            0 
      13            0   -1364.4045            0   -1364.4045            0 
      14            0   -1364.4045            0   -1364.4045            0 
      15            0   -1364.4045            0   -1364.4045            0 
      16            0   -1364.4045            0   -1364.4045            0 
      17            0   -1364.4045            0   -1364.4045            0 
      18            0   -1364.4045            0   -1364.4045            0 
      19            0   -1364.4045            0   -1364.4045            0 
      20            0   -1364.4045            0   -1364.4045            0 
      21            0   -1364.4045            0   -1364.4045            0 
      22            0   -1364.4045            0   -1364.4045            0 
      23            0   -1364.4045            0   -1364.4045            0 
      24            0   -1364.4045            0   -1364.4045            0 
      25            0   -1364.4045            0   -1364.4045            0 
      26            0   -1364.4045            0   -1364.4045            0 
      27            0   -1364.4045            0   -1364.4045            0 
      28            0   -1364.4045            0   -1364.4045            0 
      29            0   -1364.4045            0   -1364.4045            0 
      30            0   -1364.4045            0   -1364.4045            0 
      31            0   -1364.4045            0   -1364.4045            0 
      32            0   -1364.4045            0   -1364.4045            0 
      33            0   -1364.4045            0   -1364.4045            0 
      34            0   -1364.4045            0   -1364.4045            0 
      35            0   -1364.4045            0   -1364.4045            0 
      36            0   -1364.4045            0   -1364.4045            0 
      37            0   -1364.4045            0   -1364.4045            0 
      38            0   -1364.4045            0   -1364.4045            0 
      39            0   -1364.4045            0   -1364.4045            0 
      40            0   -1364.4045            0   -1364.4045            0 
      41            0   -1364.4045            0   -1364.4045            0 
      42            0   -1364.4045            0   -1364.4045            0 
      43            0   -1364.4045            0   -1364.4045            0 
      44            0   -1364.4045            0   -1364.4045            0 
      45            0   -1364.4045            0   -1364.4045            0 
      46            0   -1364.4045            0   -1364.4045            0 
      47            0   -1364.4045            0   -1364.4045            0 
      48            0   -1364.4045            0   -1364.4045            0 
      49            0   -1364.4045            0   -1364.4045            0 
      50            0   -1364.4045            0   -1364.4045            0 
      51            0   -1364.4045            0   -1364.4045            0 
      52            0   -1364.4045            0   -1364.4045            0 
      53            0   -1364.4045            0   -1364.4045            0 
      54            0   -1364.4045            0   -1364.4045            0 
      55            0   -1364.4045            0   -1364.4045            0 
      56            0   -1364.4045            0   -1364.4045            0 
      57            0   -1364.4045            0   -1364.4045            0 
      58            0   -1364.4045            0   -1364.4045            0 
      59            0   -1364.4045            0   -1364.4045            0 
      60            0   -1364.4045            0   -1364.4045            0 
      61            0   -1364.4045            0   -1364.4045            0 
      62            0   -1364.4045            0   -1364.4045            0 
      63            0   -1364.4045            0   -1364.4045            0 
      64            0   -1364.4045            0   -1364.4045            0 
      65            0   -1364.4045            0   -1364.4045            0 
      66            0   -1364.4045            0   -1364.4045            0 
      67            0   -1364.4045            0   -1364.4045            0 
      68            0   -1364.4045            0   -1364.4045            0 
      69            0   -1364.4045            0   -1364.4045            0 
      70            0   -1364.4045            0   -1364.4045            0 
      71            0   -1364.4045            0   -1364.4045            0 
      72            0   -1364.4045            0   -1364.4045            0 
      73            0   -1364.4045            0   -1364.4045            0 
      74            0   -1364.4045            0   -1364.4045            0 
      75            0   -1364.4045            0   -1364.4045            0 
      76            0   -1364.4045            0   -1364.4045            0 
      77            0   -1364.4045            0   -1364.4045            0 
      78            0   -1364.4045            0   -1364.4045            0 
      79            0   -1364.4045            0   -1364.4045            0 
      80            0   -1364.4045            0   -1364.4045            0 
      81            0   -1364.4045            0   -1364.4045            0 
      82            0   -1364.4045            0   -1364.4045            0 
      83            0   -1364.4045            0   -1364.4045            0 
      84            0   -1364.4045            0   -1364.4045            0 
      85            0   -1364.4045            0   -1364.4045            0 
      86            0   -1364.4045            0   -1364.4045            0 
      87            0   -1364.4045            0   -1364.4045            0 
      88            0   -1364.4045            0   -1364.4045            0 
      89            0   -1364.4045            0   -1364.4045            0 
      90            0   -1364.4045            0   -1364.4045            0 
      91            0   -1364.4045            0   -1364.4045            0 
      92            0   -1364.4045            0   -1364.4045            0 
      93            0   -1364.4045            0   -1364.4045            0 
      94            0   -1364.4045            0   -1364.4045            0 
      95            0   -1364.4045            0   -1364.4045            0 
      96            0   -1364.4045            0   -1364.4045            0 
      97            0   -1364.4045            0   -1364.4045            0 
      98            0   -1364.4045            0   -1364.4045            0 
      99            0   -1364.4045            0   -1364.4045            0 
     100            0   -1364.4045            0   -1364.4045            0 
     101            0   -1364.4045            0   -1364.4045            0 
Loop time of 0.453931 on 1 procs for 100 steps with 13500 atoms

Pair  time (%) = 0.218773 (48.1952)
Neigh time (%) = 0 (0)
Comm  time (%) = 0.0185216 (4.08026)
Outpt time (%) = 0.040347 (8.88836)
Other time (%) = 0.176289 (38.8362)

Nlocal:    13500 ave 13500 max 13500 min
Histogram: 1 0 0 0 0 0 0 0 0 0
Nghost:    4468 ave 4468 max 4468 min
Histogram: 1 0 0 0 0 0 0 0 0 0
Neighs:    0 ave 0 max 0 min
Histogram: 1 0 0 0 0 0 0 0 0 0

Total # of neighbors = 0
Ave neighs/atom = 0
Neighbor list builds = 0
Dangerous builds = 0
